ITEM: TIMESTEP
0
ITEM: NUMBER OF ATOMS
591
ITEM: BOX BOUNDS pp pp pp
0.0000000000000000e+00 2.3379778613152006e+01
0.0000000000000000e+00 2.3379778613152006e+01
0.0000000000000000e+00 2.4798000000000002e+01
ITEM: ATOMS id type mass x y z vx vy vz
1 1 26.9815 4.133e-05 2.92251 4.133e-05 -9.02294 0.211741 -8.70329
2 1 26.9815 4.133e-05 4.133e-05 4.133e-05 6.19138 -6.99067 6.85461
3 1 26.9815 2.92251 4.133e-05 4.133e-05 -5.59299 3.66285 3.96237
4 1 26.9815 1.46128 1.46128 2.06654 4.44441 0.354978 -7.69618
5 1 26.9815 4.133e-05 8.76746 4.133e-05 -3.11947 -6.85906 -5.21357
6 1 26.9815 4.133e-05 5.84499 4.133e-05 -6.85776 3.10024 -8.55067
7 1 26.9815 2.92251 5.84499 4.133e-05 0.705239 -4.5059 3.10115
8 1 26.9815 1.46128 4.38375 2.06654 4.59607 -2.89184 4.04551
9 1 26.9815 1.46128 7.30622 2.06654 -2.01096 -7.41641 -2.40589
10 1 26.9815 2.92251 2.92251 4.133e-05 2.20035 2.7247 5.55891
11 1 26.9815 5.84499 2.92251 4.133e-05 2.66718 -8.49059 -8.20395
12 1 26.9815 4.38375 1.46128 2.06654 -5.56237 7.83516 -3.40714
13 1 26.9815 4.38375 4.38375 2.06654 0.648574 -8.91262 8.46457
14 1 26.9815 5.84499 4.133e-05 4.133e-05 -0.612945 8.63415 7.84568
15 1 26.9815 8.76746 4.133e-05 4.133e-05 7.21302 -9.13537 1.9368
16 1 26.9815 7.30622 1.46128 2.06654 -3.72321 0.218809 0.710897
17 1 26.9815 4.133e-05 14.6124 4.133e-05 -7.36749 4.21316 -7.90922
18 1 26.9815 4.133e-05 11.6899 4.133e-05 7.58283 7.95858 -7.29581
19 1 26.9815 2.92251 11.6899 4.133e-05 -1.05584 2.76173 8.13496
20 1 26.9815 1.46128 10.2287 2.06654 1.74368 2.22948 -4.69564
21 1 26.9815 1.46128 13.1512 2.06654 2.25389 -9.05026 -7.92401
22 1 26.9815 2.92251 8.76746 4.133e-05 -3.98959 7.87601 8.6789
23 1 26.9815 5.84499 8.76746 4.133e-05 -7.84624 -2.76378 5.30906
24 1 26.9815 4.38375 7.30622 2.06654 -3.64568 -9.32851 0.669699
25 1 26.9815 4.38375 10.2287 2.06654 -7.04869 2.56559 -6.94283
26 1 26.9815 5.84499 5.84499 4.133e-05 6.61401 4.5463 -5.45987
27 1 26.9815 8.76746 5.84499 4.133e-05 -8.18388 -7.90675 -3.43754
28 1 26.9815 7.30622 4.38375 2.06654 0.118208 -8.22299 4.63025
29 1 26.9815 7.30622 7.30622 2.06654 -0.400858 0.0663103 8.11361
30 1 26.9815 8.76746 2.92251 4.133e-05 7.41367 8.81055 0.992742
31 1 26.9815 11.6899 2.92251 4.133e-05 7.9812 -5.27305 -1.74594
32 1 26.9815 10.2287 1.46128 2.06654 -8.05559 -2.73602 -2.113
33 1 26.9815 10.2287 4.38375 2.06654 2.79552 -2.70706 -7.7034
34 1 26.9815 11.6899 4.133e-05 4.133e-05 3.03717 -6.65985 6.77864
35 1 26.9815 14.6124 4.133e-05 4.133e-05 -6.30996 3.62369 2.09733
36 1 26.9815 13.1512 1.46128 2.06654 -3.7984 -5.55862 -6.70173
37 1 26.9815 4.133e-05 20.4573 4.133e-05 -6.51141 8.73925 5.863
38 1 26.9815 4.133e-05 17.5349 4.133e-05 9.08214 -5.39979 1.15063
39 1 26.9815 2.92251 17.5349 4.133e-05 0.0805753 -2.66849 2.53832
40 1 26.9815 1.46128 16.0736 2.06654 6.49046 6.27671 0.398807
41 1 26.9815 1.46128 18.9961 2.06654 -2.38844 -7.58709 -8.8933
42 1 26.9815 2.92251 14.6124 4.133e-05 2.95685 -7.42024 6.18814
43 1 26.9815 5.84499 14.6124 4.133e-05 4.67807 8.11437 4.07901
44 1 26.9815 4.38375 13.1512 2.06654 -4.09849 0.609368 1.97618
45 1 26.9815 4.38375 16.0736 2.06654 1.93901 3.8438 0.791662
46 1 26.9815 5.84499 11.6899 4.133e-05 1.0195 8.83119 1.64617
47 1 26.9815 8.76746 11.6899 4.133e-05 -2.66581 -2.41064 -2.54125
48 1 26.9815 7.30622 10.2287 2.06654 5.95503 -5.28586 1.69127
49 1 26.9815 7.30622 13.1512 2.06654 7.98924 2.19729 1.22956
50 1 26.9815 8.76746 8.76746 4.133e-05 -4.29106 -9.22502 8.2806
51 1 26.9815 11.6899 8.76746 4.133e-05 6.58373 6.01311 0.0782145
52 1 26.9815 10.2287 7.30622 2.06654 5.54291 -4.33035 0.314357
53 1 26.9815 10.2287 10.2287 2.06654 0.216417 1.64944 -0.242401
54 1 26.9815 11.6899 5.84499 4.133e-05 -5.1534 8.6927 7.39952
55 1 26.9815 14.6124 5.84499 4.133e-05 1.13536 5.44106 -7.04289
56 1 26.9815 13.1512 4.38375 2.06654 2.03661 3.49022 1.24423
57 1 26.9815 13.1512 7.30622 2.06654 5.37735 2.31005 0.454319
58 1 26.9815 14.6124 2.92251 4.133e-05 0.868051 -2.65872 2.71559
59 1 26.9815 17.5349 2.92251 4.133e-05 -3.84151 -0.969483 -8.88908
60 1 26.9815 16.0736 1.46128 2.06654 0.828746 -6.96253 5.8591
61 1 26.9815 16.0736 4.38375 2.06654 -1.76615 5.37178 -4.81375
62 1 26.9815 17.5349 4.133e-05 4.133e-05 4.2243 1.67805 6.58402
63 1 26.9815 20.4573 4.133e-05 4.133e-05 4.07247 2.20861 -9.10287
64 1 26.9815 18.9961 1.46128 2.06654 -0.939544 6.75451 -8.67772
65 1 26.9815 1.46128 21.9186 2.06654 -1.70274 -4.45345 -8.68592
66 1 26.9815 2.92251 20.4573 4.133e-05 6.45352 5.30376 0.567358
67 1 26.9815 5.84499 20.4573 4.133e-05 4.78257 -3.9331 4.66858
68 1 26.9815 4.38375 18.9961 2.06654 5.72152 7.91272 5.79403
69 1 26.9815 4.38375 21.9186 2.06654 -1.63887 -6.51311 -6.38292
70 1 26.9815 5.84499 17.5349 4.133e-05 -7.97093 -1.83761 2.84903
71 1 26.9815 8.76746 17.5349 4.133e-05 -3.42929 -0.150825 4.74571
72 1 26.9815 7.30622 16.0736 2.06654 7.72983 -0.68329 6.61274
73 1 26.9815 7.30622 18.9961 2.06654 -5.32495 5.68062 8.51404
74 1 26.9815 8.76746 14.6124 4.133e-05 -7.63128 0.539397 -7.28993
75 1 26.9815 11.6899 14.6124 4.133e-05 6.53211 -4.6261 6.45086
76 1 26.9815 10.2287 13.1512 2.06654 8.40037 2.84719 4.1631
77 1 26.9815 10.2287 16.0736 2.06654 5.52814 2.77097 -0.661794
78 1 26.9815 11.6899 11.6899 4.133e-05 1.18674 -6.17534 1.03816
79 1 26.9815 14.6124 11.6899 4.133e-05 5.58595 8.07439 6.6047
80 1 26.9815 13.1512 10.2287 2.06654 5.27064 -4.58683 -8.04305
81 1 26.9815 13.1512 13.1512 2.06654 0.565849 4.45483 6.75052
82 1 26.9815 14.6124 8.76746 4.133e-05 -4.89257 -0.982679 6.31206
83 1 26.9815 17.5349 8.76746 4.133e-05 9.14223 1.82086 0.403255
84 1 26.9815 16.0736 7.30622 2.06654 -0.539172 -9.33668 -9.04793
85 1 26.9815 16.0736 10.2287 2.06654 -7.32067 7.19733 -4.06756
86 1 26.9815 17.5349 5.84499 4.133e-05 3.207 3.92752 4.05466
87 1 26.9815 20.4573 5.84499 4.133e-05 5.94431 -3.07828 6.12259
88 1 26.9815 18.9961 4.38375 2.06654 -3.28408 -2.48552 -3.15167
89 1 26.9815 18.9961 7.30622 2.06654 -8.00227 0.0683826 6.4822
90 1 26.9815 20.4573 2.92251 4.133e-05 6.54845 -3.46907 1.01105
91 1 26.9815 21.9186 1.46128 2.06654 5.7181 5.02503 1.08618
92 1 26.9815 21.9186 4.38375 2.06654 -7.62236 4.633 -6.63017
93 1 26.9815 7.30622 21.9186 2.06654 -7.06444 -6.9106 3.46385
94 1 26.9815 8.76746 20.4573 4.133e-05 -6.67869 4.76415 -8.28684
95 1 26.9815 11.6899 20.4573 4.133e-05 4.9644 7.62762 8.68456
96 1 26.9815 10.2287 18.9961 2.06654 -3.93904 0.570303 1.6907
97 1 26.9815 10.2287 21.9186 2.06654 -1.65779 3.51815 -3.39836
98 1 26.9815 11.6899 17.5349 4.133e-05 2.47834 7.97044 -8.58929
99 1 26.9815 14.6124 17.5349 4.133e-05 8.01069 -1.96862 6.88753
100 1 26.9815 13.1512 16.0736 2.06654 0.800167 4.9129 -5.84739
101 1 26.9815 13.1512 18.9961 2.06654 5.28663 -9.16566 3.24952
102 1 26.9815 14.6124 14.6124 4.133e-05 0.706279 -5.26439 -1.95001
103 1 26.9815 17.5349 14.6124 4.133e-05 7.53003 -4.36475 5.46002
104 1 26.9815 16.0736 13.1512 2.06654 -0.459938 -8.46341 -7.2071
105 1 26.9815 16.0736 16.0736 2.06654 -5.09226 -2.96387 -3.30271
106 1 26.9815 17.5349 11.6899 4.133e-05 5.7786 1.05087 2.67834
107 1 26.9815 20.4573 11.6899 4.133e-05 8.13654 -1.34235 -4.49865
108 1 26.9815 18.9961 10.2287 2.06654 -4.87901 8.0477 -4.29873
109 1 26.9815 18.9961 13.1512 2.06654 0.844997 -7.29832 -4.68291
110 1 26.9815 20.4573 8.76746 4.133e-05 -2.59781 -8.06141 4.0755
111 1 26.9815 21.9186 7.30622 2.06654 -8.37869 -0.613101 1.3169
112 1 26.9815 21.9186 10.2287 2.06654 5.33207 7.09242 0.938708
113 1 26.9815 13.1512 21.9186 2.06654 -6.88744 -3.67307 -0.380369
114 1 26.9815 14.6124 20.4573 4.133e-05 -8.7375 3.14653 3.73928
115 1 26.9815 17.5349 20.4573 4.133e-05 -8.00726 7.29019 6.9865
116 1 26.9815 16.0736 18.9961 2.06654 5.17798 5.9841 4.75478
117 1 26.9815 16.0736 21.9186 2.06654 -3.80531 5.96491 -7.86178
118 1 26.9815 17.5349 17.5349 4.133e-05 2.74263 1.69167 -1.40872
119 1 26.9815 20.4573 17.5349 4.133e-05 8.22241 1.58674 3.29165
120 1 26.9815 18.9961 16.0736 2.06654 -2.18228 -6.33854 -7.44888
121 1 26.9815 18.9961 18.9961 2.06654 -3.24538 -8.28987 -7.34664
122 1 26.9815 20.4573 14.6124 4.133e-05 1.4026 -6.01577 3.12753
123 1 26.9815 21.9186 13.1512 2.06654 -7.81206 6.66878 8.8799
124 1 26.9815 21.9186 16.0736 2.06654 -2.17077 4.76825 5.8915
125 1 26.9815 18.9961 21.9186 2.06654 -4.13044 -7.76972 2.60988
126 1 26.9815 20.4573 20.4573 4.133e-05 6.06741 5.77475 4.49776
127 1 26.9815 21.9186 18.9961 2.06654 -3.01331 -9.25537 8.50071
128 1 26.9815 21.9186 21.9186 2.06654 5.24553 -7.22806 -8.83036
129 1 26.9815 4.133e-05 2.92251 4.13304 3.45896 -9.06988 8.80392
130 1 26.9815 4.133e-05 4.133e-05 4.13304 -3.19592 2.5119 2.06679
131 1 26.9815 2.92251 4.133e-05 4.13304 -6.61771 8.60792 4.48225
132 1 26.9815 1.46128 1.46128 6.19954 -8.56107 -3.19734 -7.76457
133 1 26.9815 4.133e-05 8.76746 4.13304 -4.14879 -6.16991 1.07727
134 1 26.9815 4.133e-05 5.84499 4.13304 6.71465 0.520315 0.13878
135 1 26.9815 2.92251 5.84499 4.13304 2.57475 5.88366 -6.29282
136 1 26.9815 1.46128 4.38375 6.19954 -6.81483 -4.57226 -0.2223
137 1 26.9815 1.46128 7.30622 6.19954 4.54713 -4.99252 -8.4304
138 1 26.9815 2.92251 2.92251 4.13304 -1.45455 -7.85165 -7.22482
139 1 26.9815 5.84499 2.92251 4.13304 7.06899 -5.34911 -3.96129
140 1 26.9815 4.38375 1.46128 6.19954 2.66376 6.93691 -5.68315
141 1 26.9815 4.38375 4.38375 6.19954 -5.33354 7.23156 5.99434
142 1 26.9815 5.84499 4.133e-05 4.13304 -7.56594 4.94807 1.84878
143 1 26.9815 8.76746 4.133e-05 4.13304 -6.40257 -3.27792 5.15397
144 1 26.9815 7.30622 1.46128 6.19954 -3.35204 3.83055 -3.1927
145 1 26.9815 4.133e-05 14.6124 4.13304 -4.83238 7.89358 -6.0207
146 1 26.9815 4.133e-05 11.6899 4.13304 -8.90265 -1.63644 -6.97141
147 1 26.9815 2.92251 11.6899 4.13304 0.277542 8.09547 -3.55745
148 1 26.9815 1.46128 10.2287 6.19954 8.40151 3.69694 -6.46743
149 1 26.9815 1.46128 13.1512 6.19954 -6.42843 -0.446797 7.1752
150 1 26.9815 2.92251 8.76746 4.13304 4.70568 -1.99185 -0.789926
151 1 26.9815 5.84499 8.76746 4.13304 -1.17642 -0.196977 -5.25729
152 1 26.9815 4.38375 7.30622 6.19954 5.85437 -1.58304 -2.6876
153 1 26.9815 4.38375 10.2287 6.19954 7.32911 -8.72276 -9.00064
154 1 26.9815 5.84499 5.84499 4.13304 3.68917 -4.78258 1.67397
155 1 26.9815 8.76746 5.84499 4.13304 8.81187 -8.60586 5.09702
156 1 26.9815 7.30622 4.38375 6.19954 5.6956 -8.38688 2.95658
157 1 26.9815 21.9186 21.9186 22.7315 -0.52308 5.90134 -0.82273
158 1 26.9815 8.76746 2.92251 4.13304 -5.59808 -8.93676 3.72012
159 1 26.9815 11.6899 2.92251 4.13304 -1.77817 3.88479 -3.0956
160 1 26.9815 10.2287 1.46128 6.19954 4.64287 -0.242389 -2.82579
161 1 26.9815 10.2287 4.38375 6.19954 -0.00779847 6.90647 -6.95101
162 1 26.9815 11.6899 4.133e-05 4.13304 -3.16412 8.43039 -7.69464
163 1 26.9815 14.6124 4.133e-05 4.13304 4.3961 -9.36875 -1.11571
164 1 26.9815 13.1512 1.46128 6.19954 -7.6297 8.84682 9.06355
165 1 26.9815 4.133e-05 20.4573 4.13304 3.5118 3.86711 -8.61834
166 1 26.9815 4.133e-05 17.5349 4.13304 -6.37156 7.43337 7.05209
167 1 26.9815 2.92251 17.5349 4.13304 -4.45853 1.74921 -0.608725
168 1 26.9815 1.46128 16.0736 6.19954 -0.166155 7.01257 7.9289
169 1 26.9815 1.46128 18.9961 6.19954 2.13419 2.71946 8.6882
170 1 26.9815 2.92251 14.6124 4.13304 2.62612 -5.90624 2.70064
171 1 26.9815 5.84499 14.6124 4.13304 0.0875481 5.14259 7.96455
172 1 26.9815 4.38375 13.1512 6.19954 -0.19679 2.58073 -7.8035
173 1 26.9815 4.38375 16.0736 6.19954 -2.2021 6.79894 8.86888
174 1 26.9815 5.84499 11.6899 4.13304 -5.10808 4.59389 -7.71379
175 1 26.9815 21.9186 18.9961 22.7315 -7.42333 -4.61426 4.94636
176 1 26.9815 20.4573 20.4573 20.665 7.54261 6.49776 -3.34721
177 1 26.9815 18.9961 21.9186 22.7315 5.26381 8.35961 5.86159
178 1 26.9815 8.76746 8.76746 4.13304 3.47357 -0.445859 4.72286
179 1 26.9815 21.9186 16.0736 22.7315 6.64357 -9.01857 -3.98314
180 1 26.9815 21.9186 13.1512 22.7315 0.00761691 -7.4595 2.56133
181 1 26.9815 20.4573 14.6124 20.665 -7.73229 -1.70993 -2.43425
182 1 26.9815 11.6899 5.84499 4.13304 -0.377888 3.30013 -3.48055
183 1 26.9815 14.6124 5.84499 4.13304 6.54843 -3.78153 -0.224156
184 1 26.9815 13.1512 4.38375 6.19954 -8.42223 -3.06531 5.45686
185 1 26.9815 18.9961 18.9961 22.7315 1.11685 4.12786 -1.41143
186 1 26.9815 14.6124 2.92251 4.13304 -0.850305 -6.49937 5.84198
187 1 26.9815 17.5349 2.92251 4.13304 2.03798 8.15299 -3.05337
188 1 26.9815 16.0736 1.46128 6.19954 3.48811 6.83601 -6.21223
189 1 26.9815 16.0736 4.38375 6.19954 -1.3691 6.39894 -5.3188
190 1 26.9815 17.5349 4.133e-05 4.13304 -7.02264 2.93041 -0.82513
191 1 26.9815 20.4573 4.133e-05 4.13304 8.75091 6.04733 -8.11572
192 1 26.9815 18.9961 1.46128 6.19954 0.661914 -3.4731 6.184
193 1 26.9815 1.46128 21.9186 6.19954 7.95729 -6.07294 8.48686
194 1 26.9815 2.92251 20.4573 4.13304 -8.78807 -8.20466 2.89718
195 1 26.9815 5.84499 20.4573 4.13304 3.75153 4.2433 6.45474
196 1 26.9815 4.38375 18.9961 6.19954 0.750705 -6.03625 5.18366
197 1 26.9815 4.38375 21.9186 6.19954 3.45723 -1.6504 -4.45943
198 1 26.9815 5.84499 17.5349 4.13304 -1.91436 -6.28328 -8.40775
199 1 26.9815 8.76746 17.5349 4.13304 -3.49347 -3.23006 7.40034
200 1 26.9815 18.9961 16.0736 22.7315 -3.23111 -5.58205 0.49623
201 1 26.9815 7.30622 18.9961 6.19954 -5.71724 -6.35967 2.0678
202 1 26.9815 8.76746 14.6124 4.13304 -7.77912 -4.87859 -7.70443
203 1 26.9815 20.4573 17.5349 20.665 4.0402 6.70005 5.80482
204 1 26.9815 17.5349 17.5349 20.665 -2.53411 5.18151 5.94325
205 1 26.9815 16.0736 21.9186 22.7315 8.81513 -8.52118 6.31588
206 1 26.9815 16.0736 18.9961 22.7315 0.33703 5.25105 7.84986
207 1 26.9815 17.5349 20.4573 20.665 4.54674 6.62589 -1.00417
208 1 26.9815 14.6124 20.4573 20.665 7.54685 4.80438 -6.615
209 1 26.9815 13.1512 21.9186 22.7315 -7.29006 -7.07296 -8.8806
210 1 26.9815 14.6124 8.76746 4.13304 -2.34484 -4.06482 -3.30909
211 1 26.9815 17.5349 8.76746 4.13304 7.89977 -6.71641 4.05878
212 1 26.9815 21.9186 10.2287 22.7315 2.17572 7.92579 6.70516
213 1 26.9815 21.9186 7.30622 22.7315 -1.69276 -0.810866 -4.61974
214 1 26.9815 17.5349 5.84499 4.13304 1.79721 8.67497 1.0621
215 1 26.9815 20.4573 5.84499 4.13304 6.87863 3.88526 4.79923
216 1 26.9815 18.9961 4.38375 6.19954 -4.25401 -6.35134 -3.80293
217 1 26.9815 18.9961 7.30622 6.19954 2.58663 4.85769 -3.91033
218 1 26.9815 20.4573 2.92251 4.13304 2.30936 -6.38488 -2.28568
219 1 26.9815 21.9186 1.46128 6.19954 -1.00083 -2.34045 -7.74307
220 1 26.9815 21.9186 4.38375 6.19954 -7.38972 -4.89664 -1.31856
221 1 26.9815 7.30622 21.9186 6.19954 -7.79056 3.34638 8.18291
222 1 26.9815 8.76746 20.4573 4.13304 5.44834 -7.71752 4.88754
223 1 26.9815 11.6899 20.4573 4.13304 3.44526 -2.38905 -4.2781
224 1 26.9815 10.2287 18.9961 6.19954 1.23718 3.09792 7.0513
225 1 26.9815 10.2287 21.9186 6.19954 0.464525 -3.10775 3.08852
226 1 26.9815 11.6899 17.5349 4.13304 -7.10281 4.55698 -8.21191
227 1 26.9815 14.6124 17.5349 4.13304 6.55928 -3.74154 -2.56308
228 1 26.9815 20.4573 8.76746 20.665 3.77428 3.7236 4.0462
229 1 26.9815 13.1512 18.9961 6.19954 -8.5882 -3.45484 3.22877
230 1 26.9815 14.6124 14.6124 4.13304 -1.61203 6.94222 -7.70199
231 1 26.9815 17.5349 14.6124 4.13304 8.53701 2.39073 7.37646
232 1 26.9815 18.9961 13.1512 22.7315 -3.60111 -7.68459 -6.82033
233 1 26.9815 18.9961 10.2287 22.7315 5.45547 2.80126 -2.00719
234 1 26.9815 17.5349 11.6899 4.13304 -5.46963 -1.30502 3.13611
235 1 26.9815 20.4573 11.6899 4.13304 8.85118 -4.16023 -2.63026
236 1 26.9815 18.9961 10.2287 6.19954 4.92717 1.64675 -8.94615
237 1 26.9815 18.9961 13.1512 6.19954 7.84768 -7.07166 -5.34811
238 1 26.9815 20.4573 8.76746 4.13304 -7.41463 -4.2288 -6.55547
239 1 26.9815 21.9186 7.30622 6.19954 8.85242 -1.56441 0.584116
240 1 26.9815 21.9186 10.2287 6.19954 -5.24408 -2.29449 -1.00978
241 1 26.9815 13.1512 21.9186 6.19954 4.48514 -7.77361 -8.15323
242 1 26.9815 14.6124 20.4573 4.13304 8.23542 1.56733 5.25302
243 1 26.9815 17.5349 20.4573 4.13304 2.46424 7.89114 7.64388
244 1 26.9815 16.0736 18.9961 6.19954 6.32264 -6.88629 -7.16892
245 1 26.9815 16.0736 21.9186 6.19954 -1.3276 -7.18489 5.7178
246 1 26.9815 17.5349 17.5349 4.13304 -6.80019 4.34752 8.05368
247 1 26.9815 20.4573 17.5349 4.13304 2.89859 -2.27205 -6.70548
248 1 26.9815 18.9961 16.0736 6.19954 3.3914 3.85437 -3.92173
249 1 26.9815 18.9961 18.9961 6.19954 -7.02454 7.41134 1.36551
250 1 26.9815 20.4573 14.6124 4.13304 1.87966 -9.27637 1.9365
251 1 26.9815 21.9186 13.1512 6.19954 -8.67235 4.17849 -7.26327
252 1 26.9815 21.9186 16.0736 6.19954 -1.09223 -7.27059 5.64936
253 1 26.9815 18.9961 21.9186 6.19954 -8.5262 -0.414504 3.02746
254 1 26.9815 20.4573 20.4573 4.13304 5.74083 4.21898 -1.25565
255 1 26.9815 21.9186 18.9961 6.19954 -7.84404 -2.09781 4.83515
256 1 26.9815 21.9186 21.9186 6.19954 -2.12694 -5.94813 -8.55629
257 1 26.9815 4.133e-05 2.92251 8.26604 -2.56934 -3.49113 -5.05719
258 1 26.9815 4.133e-05 4.133e-05 8.26604 -3.68697 7.77713 5.65308
259 1 26.9815 2.92251 4.133e-05 8.26604 -0.675955 6.97951 -0.754634
260 1 26.9815 1.46128 1.46128 10.3325 8.61166 -0.819572 -5.10779
261 1 26.9815 4.133e-05 8.76746 8.26604 2.80449 2.25658 -4.90284
262 1 26.9815 4.133e-05 5.84499 8.26604 1.85999 6.52401 0.412008
263 1 26.9815 2.92251 5.84499 8.26604 0.726314 3.31785 2.71919
264 1 26.9815 1.46128 4.38375 10.3325 2.00898 -5.1268 -4.7264
265 1 26.9815 1.46128 7.30622 10.3325 -4.32622 1.38716 3.24743
266 1 26.9815 2.92251 2.92251 8.26604 2.00339 -7.91828 3.34254
267 1 26.9815 5.84499 2.92251 8.26604 -3.741 -7.09009 -5.22771
268 1 26.9815 4.38375 1.46128 10.3325 -7.40361 -1.24055 -7.12872
269 1 26.9815 4.38375 4.38375 10.3325 -0.309931 -3.04605 1.03647
270 1 26.9815 5.84499 4.133e-05 8.26604 -4.51006 -7.50819 4.73352
271 1 26.9815 8.76746 4.133e-05 8.26604 3.37577 -3.55645 9.05578
272 1 26.9815 7.30622 1.46128 10.3325 0.513344 -2.95688 4.70997
273 1 26.9815 4.133e-05 14.6124 8.26604 8.70539 6.58367 0.306531
274 1 26.9815 4.133e-05 11.6899 8.26604 -3.70986 5.94154 0.299096
275 1 26.9815 2.92251 11.6899 8.26604 -1.0475 -2.82793 2.63031
276 1 26.9815 1.46128 10.2287 10.3325 3.13938 -2.34845 3.62668
277 1 26.9815 1.46128 13.1512 10.3325 -4.45784 -4.78266 0.235795
278 1 26.9815 2.92251 8.76746 8.26604 -7.61176 0.479183 1.57259
279 1 26.9815 20.4573 11.6899 20.665 0.34044 7.86351 -0.866852
280 1 26.9815 17.5349 11.6899 20.665 0.272739 0.290627 4.56627
281 1 26.9815 16.0736 16.0736 22.7315 -0.146188 -3.77819 1.33764
282 1 26.9815 5.84499 5.84499 8.26604 7.57619 5.83029 8.24449
283 1 26.9815 16.0736 13.1512 22.7315 1.25586 7.09129 0.277714
284 1 26.9815 17.5349 14.6124 20.665 4.18962 2.19174 -0.915742
285 1 26.9815 14.6124 14.6124 20.665 -1.05963 -6.1513 3.93152
286 1 26.9815 8.76746 2.92251 8.26604 -3.66305 8.75022 7.94212
287 1 26.9815 11.6899 2.92251 8.26604 5.61419 8.82509 8.44425
288 1 26.9815 10.2287 1.46128 10.3325 4.30955 -5.72517 1.54865
289 1 26.9815 13.1512 18.9961 22.7315 -1.0009 -3.52294 7.11108
290 1 26.9815 11.6899 4.133e-05 8.26604 2.51089 8.00496 6.43174
291 1 26.9815 14.6124 4.133e-05 8.26604 -2.93653 5.06404 0.329844
292 1 26.9815 13.1512 1.46128 10.3325 5.29135 -2.88145 -3.59346
293 1 26.9815 4.133e-05 20.4573 8.26604 4.85095 -3.13263 4.22349
294 1 26.9815 4.133e-05 17.5349 8.26604 -0.4041 0.268554 -1.81029
295 1 26.9815 2.92251 17.5349 8.26604 4.06375 1.46959 3.29882
296 1 26.9815 1.46128 16.0736 10.3325 8.87125 5.06305 2.02586
297 1 26.9815 1.46128 18.9961 10.3325 -1.78408 -4.31011 -5.94857
298 1 26.9815 2.92251 14.6124 8.26604 0.0368306 -8.67946 7.64357
299 1 26.9815 13.1512 16.0736 22.7315 1.11668 1.30245 1.45401
300 1 26.9815 14.6124 17.5349 20.665 -5.44787 -0.0926102 -1.26054
301 1 26.9815 11.6899 17.5349 20.665 1.14895 -3.23238 5.00458
302 1 26.9815 10.2287 21.9186 22.7315 1.5425 -6.35202 3.05524
303 1 26.9815 10.2287 18.9961 22.7315 -1.41314 -4.66219 1.39893
304 1 26.9815 11.6899 20.4573 20.665 -1.56742 -8.97258 3.34497
305 1 26.9815 8.76746 20.4573 20.665 0.598723 -8.17459 -2.22427
306 1 26.9815 7.30622 21.9186 22.7315 -7.99289 -6.39034 -3.01236
307 1 26.9815 21.9186 4.38375 22.7315 0.0471351 0.436456 -5.56098
308 1 26.9815 21.9186 1.46128 22.7315 6.14732 -0.132534 2.25432
309 1 26.9815 20.4573 2.92251 20.665 -8.59651 2.72279 -8.27121
310 1 26.9815 18.9961 7.30622 22.7315 -5.75078 -4.93816 -6.29332
311 1 26.9815 18.9961 4.38375 22.7315 3.04924 -4.23105 -8.0481
312 1 26.9815 20.4573 5.84499 20.665 6.95742 -2.66818 7.79792
313 1 26.9815 17.5349 5.84499 20.665 6.65493 -0.384638 -5.46286
314 1 26.9815 14.6124 2.92251 8.26604 -3.6383 5.38266 -4.28595
315 1 26.9815 17.5349 2.92251 8.26604 -3.07874 3.20256 -2.58209
316 1 26.9815 16.0736 1.46128 10.3325 -5.88476 3.83283 -1.27119
317 1 26.9815 16.0736 10.2287 22.7315 4.40191 -2.85957 -0.431526
318 1 26.9815 17.5349 4.133e-05 8.26604 6.51286 -0.0586087 5.06753
319 1 26.9815 20.4573 4.133e-05 8.26604 2.33652 -5.69892 5.09656
320 1 26.9815 18.9961 1.46128 10.3325 -2.02844 8.72692 -0.786571
321 1 26.9815 1.46128 21.9186 10.3325 0.53077 -1.75408 2.94234
322 1 26.9815 2.92251 20.4573 8.26604 -2.94355 -3.45272 2.45271
323 1 26.9815 5.84499 20.4573 8.26604 7.89644 -8.00071 3.39188
324 1 26.9815 4.38375 18.9961 10.3325 5.17259 6.49643 -7.42957
325 1 26.9815 4.38375 21.9186 10.3325 -6.92371 6.64749 -2.51574
326 1 26.9815 5.84499 17.5349 8.26604 -2.67345 -3.20432 2.54707
327 1 26.9815 16.0736 7.30622 22.7315 7.78091 1.04952 -1.85431
328 1 26.9815 17.5349 8.76746 20.665 -6.48032 2.58965 -3.75755
329 1 26.9815 14.6124 8.76746 20.665 -0.332251 4.64769 3.13625
330 1 26.9815 13.1512 13.1512 22.7315 -7.0789 5.3319 -0.562976
331 1 26.9815 13.1512 10.2287 22.7315 3.08185 -3.08152 6.38618
332 1 26.9815 10.2287 16.0736 22.7315 -2.97633 -7.47089 -6.49007
333 1 26.9815 10.2287 13.1512 22.7315 -4.05708 3.73762 2.76623
334 1 26.9815 8.76746 14.6124 20.665 8.71286 4.57904 -2.05892
335 1 26.9815 7.30622 18.9961 22.7315 0.166937 8.6294 0.858081
336 1 26.9815 7.30622 16.0736 22.7315 5.28191 2.50293 -2.84107
337 1 26.9815 8.76746 17.5349 20.665 -1.55607 -0.393148 -2.64553
338 1 26.9815 5.84499 17.5349 20.665 3.49318 0.94223 -0.267938
339 1 26.9815 4.38375 21.9186 22.7315 3.1796 -0.949971 -9.1091
340 1 26.9815 4.38375 18.9961 22.7315 3.81527 0.00868502 5.80368
341 1 26.9815 5.84499 20.4573 20.665 -3.60216 -7.02697 -1.71842
342 1 26.9815 17.5349 5.84499 8.26604 -1.36083 -0.56855 2.65921
343 1 26.9815 20.4573 5.84499 8.26604 -3.45019 -5.00777 8.71475
344 1 26.9815 18.9961 4.38375 10.3325 -6.87285 4.66616 3.75263
345 1 26.9815 2.92251 20.4573 20.665 -2.32934 1.3571 8.56535
346 1 26.9815 20.4573 2.92251 8.26604 -2.15737 -6.97344 4.81082
347 1 26.9815 21.9186 1.46128 10.3325 8.27412 -4.32377 1.51426
348 1 26.9815 21.9186 4.38375 10.3325 4.43055 4.37233 5.7024
349 1 26.9815 7.30622 21.9186 10.3325 7.87367 -7.74353 5.26208
350 1 26.9815 8.76746 20.4573 8.26604 8.79101 5.44193 7.43743
351 1 26.9815 11.6899 20.4573 8.26604 0.243795 6.03798 -1.29816
352 1 26.9815 1.46128 21.9186 22.7315 6.83015 -8.86905 -6.74396
353 1 26.9815 10.2287 21.9186 10.3325 -5.3488 5.93725 1.19705
354 1 26.9815 18.9961 1.46128 22.7315 -3.67112 0.616861 0.297861
355 1 26.9815 20.4573 4.133e-05 20.665 -3.58168 -9.2449 2.2554
356 1 26.9815 17.5349 4.133e-05 20.665 -8.65461 -7.45101 -0.478427
357 1 26.9815 16.0736 4.38375 22.7315 2.13745 2.93654 -7.10045
358 1 26.9815 16.0736 1.46128 22.7315 0.945277 0.937717 -3.1984
359 1 26.9815 17.5349 2.92251 20.665 8.6963 -0.378441 7.53622
360 1 26.9815 14.6124 2.92251 20.665 1.77423 5.29277 -1.9151
361 1 26.9815 13.1512 7.30622 22.7315 -7.37868 -1.6824 4.59551
362 1 26.9815 13.1512 4.38375 22.7315 -0.931698 -7.21736 6.87248
363 1 26.9815 20.4573 11.6899 8.26604 3.10786 -3.47574 -1.73446
364 1 26.9815 14.6124 5.84499 20.665 2.43628 -6.31079 3.21954
365 1 26.9815 11.6899 5.84499 20.665 7.28859 3.11498 2.17353
366 1 26.9815 20.4573 8.76746 8.26604 0.930906 -3.59293 -2.41443
367 1 26.9815 21.9186 7.30622 10.3325 4.63017 5.17773 -2.96607
368 1 26.9815 21.9186 10.2287 10.3325 -5.96213 -2.15599 -6.76256
369 1 26.9815 13.1512 21.9186 10.3325 -7.95437 3.01358 -6.66685
370 1 26.9815 14.6124 20.4573 8.26604 -3.68691 8.75788 -9.09957
371 1 26.9815 17.5349 20.4573 8.26604 -0.111098 2.62263 3.65688
372 1 26.9815 10.2287 10.2287 22.7315 -7.33158 6.19342 4.30014
373 1 26.9815 16.0736 21.9186 10.3325 -6.6115 3.69616 -1.3793
374 1 26.9815 17.5349 17.5349 8.26604 -7.83587 7.54106 -5.99247
375 1 26.9815 20.4573 17.5349 8.26604 -8.47482 6.21879 -6.7447
376 1 26.9815 10.2287 7.30622 22.7315 0.501933 5.7964 3.90632
377 1 26.9815 18.9961 18.9961 10.3325 -7.99799 -0.880223 -3.5808
378 1 26.9815 20.4573 14.6124 8.26604 -1.26956 2.13028 5.319
379 1 26.9815 21.9186 13.1512 10.3325 -0.702782 -6.38009 5.33811
380 1 26.9815 21.9186 16.0736 10.3325 -7.69262 8.70197 -0.760478
381 1 26.9815 18.9961 21.9186 10.3325 1.54733 1.89555 -2.11963
382 1 26.9815 20.4573 20.4573 8.26604 0.632125 6.30144 -3.1842
383 1 26.9815 21.9186 18.9961 10.3325 -7.72661 2.60575 -6.52554
384 1 26.9815 21.9186 21.9186 10.3325 1.43702 7.39046 -3.16528
385 1 26.9815 4.133e-05 2.92251 12.399 0.295504 0.0711141 -2.29943
386 1 26.9815 4.133e-05 4.133e-05 12.399 4.98231 -1.199 -1.66972
387 1 26.9815 2.92251 4.133e-05 12.399 -3.14209 -4.13772 -7.18741
388 1 26.9815 1.46128 1.46128 14.4655 -2.15429 8.36118 -4.20325
389 1 26.9815 4.133e-05 8.76746 12.399 1.38476 4.1376 -1.6512
390 1 26.9815 4.133e-05 5.84499 12.399 -1.79292 -7.07983 3.2202
391 1 26.9815 2.92251 5.84499 12.399 0.175604 8.45486 2.37589
392 1 26.9815 1.46128 4.38375 14.4655 -7.09712 -9.2375 -0.940709
393 1 26.9815 1.46128 7.30622 14.4655 -1.39579 -4.66886 -1.20419
394 1 26.9815 2.92251 2.92251 12.399 0.158809 -0.362583 0.607806
395 1 26.9815 5.84499 2.92251 12.399 -8.15848 -0.189818 5.67753
396 1 26.9815 4.38375 1.46128 14.4655 -8.98524 -4.20635 6.12209
397 1 26.9815 4.38375 4.38375 14.4655 6.52634 7.73263 5.2911
398 1 26.9815 5.84499 4.133e-05 12.399 4.38995 -3.4497 -1.51104
399 1 26.9815 8.76746 4.133e-05 12.399 2.10145 -0.616719 -4.80068
400 1 26.9815 7.30622 1.46128 14.4655 5.13713 -6.0607 -4.71766
401 1 26.9815 4.133e-05 14.6124 12.399 -3.21012 0.914809 -5.38084
402 1 26.9815 4.133e-05 11.6899 12.399 7.56509 1.50074 -1.87873
403 1 26.9815 8.76746 8.76746 20.665 2.29423 -5.46228 8.12375
404 1 26.9815 1.46128 10.2287 14.4655 -4.48018 2.54825 -6.79035
405 1 26.9815 1.46128 13.1512 14.4655 -1.14453 6.9882 -0.571631
406 1 26.9815 2.92251 8.76746 12.399 3.45172 -3.22784 8.25892
407 1 26.9815 7.30622 13.1512 22.7315 6.7958 -2.83851 7.11572
408 1 26.9815 7.30622 10.2287 22.7315 7.58506 -9.26533 5.31269
409 1 26.9815 5.84499 11.6899 20.665 2.62671 3.96479 -7.47411
410 1 26.9815 4.38375 16.0736 22.7315 -8.03916 -0.155513 -1.12645
411 1 26.9815 4.38375 13.1512 22.7315 -5.82433 -1.39759 -3.14686
412 1 26.9815 5.84499 14.6124 20.665 0.019017 1.84044 1.41696
413 1 26.9815 2.92251 14.6124 20.665 -8.35849 -7.48412 8.17319
414 1 26.9815 8.76746 2.92251 12.399 6.12569 0.998369 -4.71312
415 1 26.9815 1.46128 18.9961 22.7315 0.232554 -0.579233 5.40696
416 1 26.9815 10.2287 1.46128 14.4655 1.01879 -3.12348 -6.00559
417 1 26.9815 1.46128 16.0736 22.7315 8.01084 0.580861 -3.16209
418 1 26.9815 11.6899 4.133e-05 12.399 -0.81316 -2.02901 -5.52352
419 1 26.9815 14.6124 4.133e-05 12.399 -2.33903 2.50615 -3.42954
420 1 26.9815 13.1512 1.46128 14.4655 7.04082 -4.76566 -5.62115
421 1 26.9815 4.133e-05 20.4573 12.399 -2.47554 5.11073 1.24964
422 1 26.9815 4.133e-05 17.5349 12.399 5.1177 -4.58486 6.79993
423 1 26.9815 2.92251 17.5349 12.399 5.09638 1.67139 4.06122
424 1 26.9815 1.46128 16.0736 14.4655 6.81549 -0.0138196 -7.82895
425 1 26.9815 1.46128 18.9961 14.4655 7.58461 1.50459 8.08611
426 1 26.9815 2.92251 14.6124 12.399 0.966176 5.82248 4.67976
427 1 26.9815 2.92251 17.5349 20.665 -6.9077 2.23459 8.38393
428 1 26.9815 4.133e-05 17.5349 20.665 -6.74437 -5.44729 4.93589
429 1 26.9815 4.133e-05 20.4573 20.665 -4.4157 -7.56664 6.76723
430 1 26.9815 13.1512 1.46128 22.7315 2.54363 -6.82253 7.09771
431 1 26.9815 14.6124 4.133e-05 20.665 -3.40431 0.313887 -5.56839
432 1 26.9815 11.6899 4.133e-05 20.665 -9.00343 -0.0612033 -2.0802
433 1 26.9815 10.2287 4.38375 22.7315 7.1544 8.28184 -6.95214
434 1 26.9815 10.2287 1.46128 22.7315 -4.02486 -1.51015 0.951159
435 1 26.9815 11.6899 2.92251 20.665 1.85205 0.603703 -2.07983
436 1 26.9815 8.76746 2.92251 20.665 -4.93013 5.70567 -7.97944
437 1 26.9815 7.30622 7.30622 22.7315 -5.92476 6.07331 9.11812
438 1 26.9815 7.30622 4.38375 22.7315 9.14044 8.23875 -1.83582
439 1 26.9815 8.76746 5.84499 20.665 -5.62653 5.13116 -1.76642
440 1 26.9815 5.84499 5.84499 20.665 -5.90072 -9.25663 5.59
441 1 26.9815 4.38375 10.2287 22.7315 -3.50896 -8.37676 8.95047
442 1 26.9815 14.6124 2.92251 12.399 -1.14664 8.09427 -5.579
443 1 26.9815 17.5349 2.92251 12.399 -5.0291 1.3153 -1.30877
444 1 26.9815 16.0736 1.46128 14.4655 -7.28913 8.5803 -3.88895
445 1 26.9815 4.38375 7.30622 22.7315 -2.87154 3.65153 -4.05377
446 1 26.9815 17.5349 4.133e-05 12.399 -2.12225 -0.172987 -3.12724
447 1 26.9815 20.4573 4.133e-05 12.399 1.57917 8.418 2.69317
448 1 26.9815 18.9961 1.46128 14.4655 2.11757 -3.17983 -5.06838
449 1 26.9815 1.46128 21.9186 14.4655 8.77761 -1.03056 3.63666
450 1 26.9815 2.92251 20.4573 12.399 -0.715949 -8.91458 -6.21976
451 1 26.9815 5.84499 20.4573 12.399 -0.220958 -2.56278 -7.34977
452 1 26.9815 4.38375 18.9961 14.4655 3.47461 -1.30608 3.56488
453 1 26.9815 4.38375 21.9186 14.4655 -4.033 7.41884 -0.0718358
454 1 26.9815 5.84499 8.76746 20.665 -0.590691 -0.171883 -2.79668
455 1 26.9815 2.92251 8.76746 20.665 -2.9627 2.88267 -1.03195
456 1 26.9815 1.46128 13.1512 22.7315 -3.53533 4.12225 -4.44631
457 1 26.9815 1.46128 10.2287 22.7315 -0.136621 -7.05681 7.26142
458 1 26.9815 2.92251 11.6899 20.665 -4.63068 7.05216 -1.08112
459 1 26.9815 4.133e-05 11.6899 20.665 8.63632 -5.76941 5.37763
460 1 26.9815 4.133e-05 14.6124 20.665 0.2547 7.02591 -4.78441
461 1 26.9815 7.30622 1.46128 22.7315 5.20383 2.86891 4.70722
462 1 26.9815 8.76746 4.133e-05 20.665 -1.11081 8.6442 -5.51687
463 1 26.9815 5.84499 4.133e-05 20.665 0.0393762 -2.35597 4.76169
464 1 26.9815 4.38375 4.38375 22.7315 2.96067 2.01542 7.16335
465 1 26.9815 4.38375 1.46128 22.7315 6.11601 2.23958 1.03743
466 1 26.9815 5.84499 2.92251 20.665 -6.59287 6.87856 -1.96899
467 1 26.9815 2.92251 2.92251 20.665 -1.57043 -4.79439 3.69452