ITEM: TIMESTEP
0
ITEM: NUMBER OF ATOMS
1236
ITEM: BOX BOUNDS pp pp pp
0.0000000000000000e+00 2.9224723266440030e+01
0.0000000000000000e+00 2.9224723266440030e+01
0.0000000000000000e+00 2.8931000000000001e+01
ITEM: ATOMS id type mass x y z vx vy vz
1 1 26.9815 4.133e-05 2.92251 4.133e-05 -9.13364 0.487207 -8.47017
2 1 26.9815 4.133e-05 4.133e-05 4.133e-05 6.02352 -6.68814 7.02927
3 1 26.9815 2.92251 4.133e-05 4.133e-05 -5.71657 3.92535 4.1479
4 1 26.9815 1.46128 1.46128 2.06654 4.28311 0.629906 -7.46685
5 1 26.9815 4.133e-05 8.76746 4.133e-05 -3.25235 -6.55702 -4.99357
6 1 26.9815 4.133e-05 5.84499 4.133e-05 -6.97659 3.36486 -8.31814
7 1 26.9815 2.92251 5.84499 4.133e-05 0.557991 -4.21271 3.28991
8 1 26.9815 1.46128 4.38375 2.06654 4.4342 -2.60472 4.23072
9 1 26.9815 1.46128 7.30622 2.06654 -2.14801 -7.11229 -2.19644
10 1 26.9815 2.92251 2.92251 4.133e-05 2.04749 2.99072 5.73844
11 1 26.9815 5.84499 2.92251 4.133e-05 2.51256 -8.18242 -7.97271
12 1 26.9815 4.38375 1.46128 2.06654 -5.68607 8.08198 -3.19393
13 1 26.9815 4.38375 4.38375 2.06654 0.501538 -8.60287 8.63317
14 1 26.9815 5.84499 4.133e-05 4.133e-05 -0.755241 8.87797 8.01661
15 1 26.9815 8.76746 4.133e-05 4.133e-05 7.04132 -8.82478 2.12993
16 1 26.9815 7.30622 1.46128 2.06654 -3.85382 0.494249 0.908638
17 1 26.9815 4.133e-05 14.6124 4.133e-05 -7.48441 4.47359 -7.67909
18 1 26.9815 4.133e-05 11.6899 4.133e-05 7.40974 8.20494 -7.06798
19 1 26.9815 2.92251 11.6899 4.133e-05 -1.19647 3.02762 8.30481
20 1 26.9815 1.46128 10.2287 2.06654 1.59253 2.49736 -4.47759
21 1 26.9815 1.46128 13.1512 2.06654 2.10082 -8.74 -7.69383
22 1 26.9815 2.92251 8.76746 4.133e-05 -4.1192 8.12268 8.8467
23 1 26.9815 5.84499 8.76746 4.133e-05 -7.96136 -2.47713 5.48953
24 1 26.9815 4.38375 7.30622 2.06654 -3.77659 -9.0172 0.867594
25 1 26.9815 4.38375 10.2287 2.06654 -7.16681 2.83222 -6.71633
26 1 26.9815 5.84499 5.84499 4.133e-05 6.44456 4.80548 -5.23895
27 1 26.9815 8.76746 5.84499 4.133e-05 -8.29774 -7.60078 -3.22422
28 1 26.9815 7.30622 4.38375 2.06654 -0.0268347 -7.91584 4.81326
29 1 26.9815 7.30622 7.30622 2.06654 -0.543951 0.342323 8.28354
30 1 26.9815 8.76746 2.92251 4.133e-05 7.24122 9.05371 1.18942
31 1 26.9815 11.6899 2.92251 4.133e-05 7.80662 -4.97698 -1.53896
32 1 26.9815 10.2287 1.46128 2.06654 -8.16992 -2.44948 -1.90464
33 1 26.9815 10.2287 4.38375 2.06654 2.64042 -2.42063 -7.47405
34 1 26.9815 11.6899 4.133e-05 4.133e-05 2.88116 -6.35856 6.95358
35 1 26.9815 14.6124 4.133e-05 4.133e-05 -6.43085 3.88634 2.28986
36 1 26.9815 13.1512 1.46128 2.06654 -3.92873 -5.26147 -6.47614
37 1 26.9815 4.133e-05 20.4573 4.133e-05 -6.63154 8.98267 6.04139
38 1 26.9815 4.133e-05 17.5349 4.133e-05 8.90342 -5.10324 1.34672
39 1 26.9815 2.92251 17.5349 4.133e-05 -0.0643265 -2.3822 2.72919
40 1 26.9815 1.46128 16.0736 2.06654 6.32147 6.52939 0.59772
41 1 26.9815 1.46128 18.9961 2.06654 -2.52407 -7.28232 -8.65947
42 1 26.9815 2.92251 14.6124 4.133e-05 2.80115 -7.1161 6.36531
43 1 26.9815 5.84499 14.6124 4.133e-05 4.5159 8.36014 4.2641
44 1 26.9815 4.38375 13.1512 2.06654 -4.22769 0.88334 2.16917
45 1 26.9815 4.38375 16.0736 2.06654 1.78713 4.10562 0.9891
46 1 26.9815 5.84499 11.6899 4.133e-05 0.871075 9.07428 1.84039
47 1 26.9815 8.76746 11.6899 4.133e-05 -2.80039 -2.12532 -2.33129
48 1 26.9815 7.30622 10.2287 2.06654 5.78805 -4.98974 1.88533
49 1 26.9815 7.30622 13.1512 2.06654 7.81462 2.4653 1.42535
50 1 26.9815 8.76746 8.76746 4.133e-05 -4.41954 -8.9141 8.4499
51 1 26.9815 11.6899 8.76746 4.133e-05 6.41439 6.26678 0.278332
52 1 26.9815 10.2287 7.30622 2.06654 5.37748 -4.03782 0.513587
53 1 26.9815 10.2287 10.2287 2.06654 0.0710046 1.91951 -0.0410791
54 1 26.9815 11.6899 5.84499 4.133e-05 -5.27863 8.9363 7.57213
55 1 26.9815 14.6124 5.84499 4.133e-05 0.986498 5.69688 -6.81602
56 1 26.9815 13.1512 4.38375 2.06654 1.88436 3.75337 1.43997
57 1 26.9815 13.1512 7.30622 2.06654 5.21254 2.57763 0.653024
58 1 26.9815 14.6124 2.92251 4.133e-05 0.72019 -2.37247 2.9058
59 1 26.9815 17.5349 2.92251 4.133e-05 -3.97168 -0.689578 -8.65528
60 1 26.9815 16.0736 1.46128 2.06654 0.681034 -6.6601 6.0375
61 1 26.9815 16.0736 4.38375 2.06654 -1.90411 5.62786 -4.59526
62 1 26.9815 17.5349 4.133e-05 4.133e-05 4.06383 1.94801 6.75969
63 1 26.9815 20.4573 4.133e-05 4.133e-05 3.91257 2.47657 -8.86826
64 1 26.9815 18.9961 1.46128 2.06654 -1.08061 7.00539 -8.44471
65 1 26.9815 4.133e-05 26.3023 4.133e-05 -1.84094 -4.16046 -8.45287
66 1 26.9815 4.133e-05 23.3798 4.133e-05 6.28468 5.5601 0.765638
67 1 26.9815 2.92251 23.3798 4.133e-05 4.62 -3.64206 4.85145
68 1 26.9815 1.46128 21.9186 2.06654 5.55543 8.15925 5.97267
69 1 26.9815 1.46128 24.8411 2.06654 -1.77731 -6.21238 -6.15853
70 1 26.9815 2.92251 20.4573 4.133e-05 -8.08558 -1.55444 3.03874
71 1 26.9815 5.84499 20.4573 4.133e-05 -3.561 0.126003 4.92829
72 1 26.9815 4.38375 18.9961 2.06654 7.55619 -0.404461 6.78831
73 1 26.9815 4.38375 21.9186 2.06654 -5.44955 5.93554 8.68247
74 1 26.9815 5.84499 17.5349 4.133e-05 -7.74721 0.813633 -7.06213
75 1 26.9815 8.76746 17.5349 4.133e-05 6.36297 -4.33246 6.62703
76 1 26.9815 7.30622 16.0736 2.06654 8.22421 3.11275 4.34787
77 1 26.9815 7.30622 18.9961 2.06654 5.36277 3.03682 -0.458896
78 1 26.9815 8.76746 14.6124 4.133e-05 1.03768 -5.87587 1.23467
79 1 26.9815 11.6899 14.6124 4.133e-05 5.42036 8.32031 6.78029
80 1 26.9815 10.2287 13.1512 2.06654 5.10624 -4.29333 -7.81242
81 1 26.9815 10.2287 16.0736 2.06654 0.419124 4.71435 6.92557
82 1 26.9815 11.6899 11.6899 4.133e-05 -5.01878 -0.702725 6.48876
83 1 26.9815 14.6124 11.6899 4.133e-05 8.96328 2.09028 0.602152
84 1 26.9815 13.1512 10.2287 2.06654 -0.681745 -9.02534 -8.81353
85 1 26.9815 13.1512 13.1512 2.06654 -7.43776 7.44655 -3.85186
86 1 26.9815 14.6124 8.76746 4.133e-05 3.05036 4.18902 4.23984
87 1 26.9815 17.5349 8.76746 4.133e-05 5.77738 -2.79046 6.3
88 1 26.9815 16.0736 7.30622 2.06654 -3.41634 -2.19992 -2.93942
89 1 26.9815 16.0736 10.2287 2.06654 -8.1168 0.344387 6.65826
90 1 26.9815 17.5349 5.84499 4.133e-05 6.37925 -3.17978 1.20766
91 1 26.9815 20.4573 5.84499 4.133e-05 5.55201 5.28241 1.28251
92 1 26.9815 18.9961 4.38375 2.06654 -7.73832 4.89186 -6.40485
93 1 26.9815 18.9961 7.30622 2.06654 -7.1825 -6.60838 3.65124
94 1 26.9815 20.4573 2.92251 4.133e-05 -6.79819 5.02251 -8.0553
95 1 26.9815 23.3798 2.92251 4.133e-05 4.80115 7.87523 8.85234
96 1 26.9815 21.9186 1.46128 2.06654 -4.06884 0.844422 1.88476
97 1 26.9815 21.9186 4.38375 2.06654 -1.79616 3.78119 -3.18518
98 1 26.9815 23.3798 4.133e-05 4.133e-05 2.32443 8.21675 -8.3566
99 1 26.9815 26.3023 4.133e-05 4.133e-05 7.83599 -1.68496 7.06206
100 1 26.9815 24.8411 1.46128 2.06654 0.652561 5.1707 -5.62501
101 1 26.9815 1.46128 27.7635 2.06654 5.12217 -8.85496 3.43772
102 1 26.9815 2.92251 26.3023 4.133e-05 0.559026 -4.96835 -1.74227
103 1 26.9815 5.84499 26.3023 4.133e-05 7.35714 -4.07209 5.63992
104 1 26.9815 4.38375 24.8411 2.06654 -0.602809 -8.15535 -6.97961
105 1 26.9815 4.38375 27.7635 2.06654 -5.21773 -2.67647 -3.08989
106 1 26.9815 5.84499 23.3798 4.133e-05 5.61229 1.32319 2.86869
107 1 26.9815 8.76746 23.3798 4.133e-05 7.96138 -1.06104 -4.28134
108 1 26.9815 7.30622 21.9186 2.06654 -5.00528 8.29373 -4.08217
109 1 26.9815 7.30622 24.8411 2.06654 0.697223 -6.99464 -4.46491
110 1 26.9815 8.76746 20.4573 4.133e-05 -2.73265 -7.75486 4.2606
111 1 26.9815 11.6899 20.4573 4.133e-05 -8.49181 -0.334536 1.51237
112 1 26.9815 10.2287 18.9961 2.06654 5.16744 7.34203 1.13559
113 1 26.9815 10.2287 21.9186 2.06654 -7.00617 -3.38301 -0.178528
114 1 26.9815 11.6899 17.5349 4.133e-05 -8.84927 3.41097 3.92564
115 1 26.9815 14.6124 17.5349 4.133e-05 -8.12178 7.53906 7.16066
116 1 26.9815 13.1512 16.0736 2.06654 5.01393 6.23788 4.93733
117 1 26.9815 13.1512 18.9961 2.06654 -3.93561 6.21876 -7.63183
118 1 26.9815 14.6124 14.6124 4.133e-05 2.58773 1.96158 -1.20301
119 1 26.9815 17.5349 14.6124 4.133e-05 8.04692 1.85704 3.47969
120 1 26.9815 16.0736 13.1512 2.06654 -2.31868 -6.03847 -7.22048
121 1 26.9815 16.0736 16.0736 2.06654 -3.37778 -7.98246 -7.11863
122 1 26.9815 17.5349 11.6899 4.133e-05 1.25273 -5.7169 3.31619
123 1 26.9815 20.4573 11.6899 4.133e-05 -7.92731 6.91999 9.04695
124 1 26.9815 18.9961 10.2287 2.06654 -2.30721 5.0266 6.06978
125 1 26.9815 18.9961 13.1512 2.06654 -4.25952 -7.46426 2.80049
126 1 26.9815 20.4573 8.76746 4.133e-05 5.90001 6.02931 4.68127
127 1 26.9815 23.3798 8.76746 4.133e-05 -3.14659 -8.94434 8.66918
128 1 26.9815 21.9186 7.30622 2.06654 5.08123 -6.92464 -8.59677
129 1 26.9815 21.9186 10.2287 2.06654 3.30137 -8.75954 8.97125
130 1 26.9815 23.3798 5.84499 4.133e-05 -3.32851 2.77872 2.25943
131 1 26.9815 26.3023 5.84499 4.133e-05 -6.73745 8.85184 4.66582
132 1 26.9815 24.8411 4.38375 2.06654 -8.67351 -2.90907 -7.53499
133 1 26.9815 24.8411 7.30622 2.06654 -4.2778 -5.87047 1.27364
134 1 26.9815 26.3023 2.92251 4.133e-05 6.54482 0.794622 0.33867
135 1 26.9815 27.7635 1.46128 2.06654 2.42048 6.13781 -6.06877
136 1 26.9815 27.7635 4.38375 2.06654 -6.93382 -4.27882 -0.0210533
137 1 26.9815 7.30622 27.7635 2.06654 4.38545 -4.6975 -8.19832
138 1 26.9815 8.76746 26.3023 4.133e-05 -1.59368 -7.54589 -6.99726
139 1 26.9815 11.6899 26.3023 4.133e-05 6.89783 -5.05275 -3.746
140 1 26.9815 10.2287 24.8411 2.06654 2.50915 7.18711 -5.46138
141 1 26.9815 10.2287 27.7635 2.06654 -5.4581 7.48065 6.17223
142 1 26.9815 11.6899 23.3798 4.133e-05 -7.68211 5.20574 2.04225
143 1 26.9815 14.6124 23.3798 4.133e-05 -6.52311 -2.98935 5.33502
144 1 26.9815 13.1512 21.9186 2.06654 -3.48404 4.09242 -2.98029
145 1 26.9815 13.1512 24.8411 2.06654 -4.95882 8.14018 -5.79766
146 1 26.9815 14.6124 20.4573 4.133e-05 -9.0138 -1.35403 -6.74481
147 1 26.9815 17.5349 20.4573 4.133e-05 0.1319 8.34132 -3.34367
148 1 26.9815 16.0736 18.9961 2.06654 8.22534 3.95931 -6.24272
149 1 26.9815 16.0736 21.9186 2.06654 -6.54888 -0.168857 7.34865
150 1 26.9815 17.5349 17.5349 4.133e-05 4.5434 -1.7081 -0.586547
151 1 26.9815 20.4573 17.5349 4.133e-05 -1.3166 0.080025 -5.03713
152 1 26.9815 18.9961 16.0736 2.06654 5.68778 -1.30083 -2.47709
153 1 26.9815 18.9961 18.9961 2.06654 7.15697 -8.41372 -8.76641
154 1 26.9815 20.4573 14.6124 4.133e-05 3.53071 -4.48835 1.86809
155 1 26.9815 23.3798 14.6124 4.133e-05 8.63416 -8.29726 5.27828
156 1 26.9815 21.9186 13.1512 2.06654 5.52961 -8.07911 3.14589
157 1 26.9815 21.9186 16.0736 2.06654 -0.665713 6.15543 -0.619227
158 1 26.9815 23.3798 11.6899 4.133e-05 -5.72164 -8.62693 3.90656
159 1 26.9815 26.3023 11.6899 4.133e-05 -1.91609 4.14645 -2.88356
160 1 26.9815 24.8411 10.2287 2.06654 4.48083 0.0347839 -2.61477
161 1 26.9815 24.8411 13.1512 2.06654 -0.152368 7.15678 -6.72448
162 1 26.9815 26.3023 8.76746 4.133e-05 -3.29683 8.67498 -7.46532
163 1 26.9815 27.7635 7.30622 2.06654 4.23499 -9.05729 -0.91111
164 1 26.9815 27.7635 10.2287 2.06654 -7.74564 9.08984 9.22991
165 1 26.9815 13.1512 27.7635 2.06654 3.354 4.12884 -8.38555
166 1 26.9815 14.6124 26.3023 4.133e-05 -6.49222 7.6817 7.226
167 1 26.9815 17.5349 26.3023 4.133e-05 -4.58638 2.0189 -0.406027
168 1 26.9815 16.0736 24.8411 2.06654 -0.31013 7.26248 8.09952
169 1 26.9815 16.0736 27.7635 2.06654 1.98157 2.98551 8.85597
170 1 26.9815 17.5349 23.3798 4.133e-05 2.47165 -5.60779 2.8909
171 1 26.9815 20.4573 23.3798 4.133e-05 -0.0573799 5.39953 8.13504
172 1 26.9815 18.9961 21.9186 2.06654 -0.340649 2.84729 -7.57377
173 1 26.9815 18.9961 24.8411 2.06654 -2.33843 7.04966 9.03597
174 1 26.9815 20.4573 20.4573 4.133e-05 -5.23349 4.85289 -7.48439
175 1 26.9815 23.3798 20.4573 4.133e-05 -7.54004 -4.32066 5.12819
176 1 26.9815 21.9186 18.9961 2.06654 7.36967 6.74961 -3.13422
177 1 26.9815 21.9186 21.9186 2.06654 5.09944 8.60446 6.03997
178 1 26.9815 23.3798 17.5349 4.133e-05 3.31593 -0.167922 4.90553
179 1 26.9815 26.3023 17.5349 4.133e-05 6.47401 -8.70843 -3.76777
180 1 26.9815 24.8411 16.0736 2.06654 -0.137011 -7.15522 2.75212
181 1 26.9815 24.8411 18.9961 2.06654 -7.84784 -1.42725 -2.22469
182 1 26.9815 26.3023 14.6124 4.133e-05 -0.521067 3.56399 -3.26706
183 1 26.9815 27.7635 13.1512 2.06654 6.37923 -3.49106 -0.0229027
184 1 26.9815 27.7635 16.0736 2.06654 -8.53518 -2.77753 5.63677
185 1 26.9815 18.9961 27.7635 2.06654 0.96805 4.38861 -1.20571
186 1 26.9815 20.4573 26.3023 4.133e-05 -0.991709 -6.19869 6.02044
187 1 26.9815 23.3798 26.3023 4.133e-05 1.88572 8.39862 -2.84148
188 1 26.9815 21.9186 24.8411 2.06654 3.3304 7.08659 -5.98848
189 1 26.9815 21.9186 27.7635 2.06654 -1.50855 6.65116 -5.0984
190 1 26.9815 23.3798 23.3798 4.133e-05 -7.14085 3.19566 -0.621618
191 1 26.9815 26.3023 23.3798 4.133e-05 8.57343 6.30088 -7.88482
192 1 26.9815 24.8411 21.9186 2.06654 0.514828 -3.18379 6.36118
193 1 26.9815 24.8411 24.8411 2.06654 7.7828 -5.77386 8.65538
194 1 26.9815 26.3023 20.4573 4.133e-05 -8.89965 -7.89757 3.08671
195 1 26.9815 27.7635 18.9961 2.06654 3.59284 4.50362 6.6309
196 1 26.9815 27.7635 21.9186 2.06654 0.603285 -5.73731 5.3646
197 1 26.9815 24.8411 27.7635 2.06654 3.29964 -1.36793 -4.24226
198 1 26.9815 26.3023 26.3023 4.133e-05 -2.05177 -5.98341 -8.17574
199 1 26.9815 27.7635 24.8411 2.06654 -3.62494 -2.94167 7.57295
200 1 26.9815 27.7635 27.7635 2.06654 -3.36357 -5.28482 0.694777
201 1 26.9815 4.133e-05 2.92251 4.13304 -5.84036 -6.05952 2.26045
202 1 26.9815 4.133e-05 4.133e-05 4.13304 -7.89449 -4.58399 -7.47507
203 1 26.9815 2.92251 4.133e-05 4.13304 3.88042 6.95114 5.98343
204 1 26.9815 1.46128 1.46128 6.19954 -2.66919 5.43831 6.12134
205 1 26.9815 4.133e-05 8.76746 4.13304 8.63741 -8.2129 6.49256
206 1 26.9815 4.133e-05 5.84499 4.13304 0.191165 5.50758 8.02078
207 1 26.9815 2.92251 5.84499 4.13304 4.38506 6.87726 -0.799989
208 1 26.9815 1.46128 4.38375 6.19954 7.37389 5.0626 -6.38974
209 1 26.9815 1.46128 7.30622 6.19954 -7.40727 -6.77012 -8.64682
210 1 26.9815 2.92251 2.92251 4.13304 -2.48063 -3.77328 -3.09624
211 1 26.9815 5.84499 2.92251 4.13304 7.72549 -6.41492 4.24394
212 1 26.9815 4.38375 1.46128 6.19954 2.02294 8.17227 6.88038
213 1 26.9815 4.38375 4.38375 6.19954 -1.831 -0.531557 -4.40197
214 1 26.9815 5.84499 4.133e-05 4.13304 1.64586 8.91863 1.25852
215 1 26.9815 8.76746 4.133e-05 4.13304 6.70819 4.14692 4.98161
216 1 26.9815 7.30622 1.46128 6.19954 -4.38263 -6.05122 -3.58823
217 1 26.9815 4.133e-05 14.6124 4.13304 2.43231 5.11571 -3.69523
218 1 26.9815 4.133e-05 11.6899 4.13304 2.15609 -6.08463 -2.07669
219 1 26.9815 2.92251 11.6899 4.13304 -1.14167 -2.05539 -7.51357
220 1 26.9815 1.46128 10.2287 6.19954 -7.50656 -4.60199 -1.11319
221 1 26.9815 1.46128 13.1512 6.19954 -7.90589 3.61006 8.35258
222 1 26.9815 2.92251 8.76746 4.13304 5.28327 -7.41226 5.06959
223 1 26.9815 5.84499 8.76746 4.13304 3.28771 -2.10381 -4.06162
224 1 26.9815 4.38375 7.30622 6.19954 1.08794 3.36254 7.22521
225 1 26.9815 4.38375 10.2287 6.19954 0.31818 -2.81981 3.27733
226 1 26.9815 5.84499 5.84499 4.13304 -7.22072 4.81612 -7.98064
227 1 26.9815 8.76746 5.84499 4.13304 6.39004 -3.45122 -2.35304
228 1 26.9815 7.30622 4.38375 6.19954 3.6155 3.98587 4.23141
229 1 26.9815 7.30622 7.30622 6.19954 -8.70054 -3.1656 3.41705
230 1 26.9815 8.76746 2.92251 4.13304 -1.75057 7.1924 -7.47264
231 1 26.9815 11.6899 2.92251 4.13304 8.36034 2.65801 7.54915
232 1 26.9815 10.2287 1.46128 6.19954 -3.73218 -7.37946 -6.5943
233 1 26.9815 10.2287 4.38375 6.19954 5.29038 3.067 -1.79924
234 1 26.9815 11.6899 4.133e-05 4.13304 -5.59368 -1.02385 3.32474
235 1 26.9815 14.6124 4.133e-05 4.13304 8.67332 -3.86834 -2.41996
236 1 26.9815 13.1512 1.46128 6.19954 4.76405 1.91683 -8.71213
237 1 26.9815 4.133e-05 20.4573 4.13304 7.6736 -6.76883 -5.1276
238 1 26.9815 4.133e-05 17.5349 4.13304 -7.53137 -3.93665 -6.33043
239 1 26.9815 2.92251 17.5349 4.13304 8.67456 -1.28227 0.782333
240 1 26.9815 1.46128 16.0736 6.19954 -5.36897 -2.00961 -0.805573
241 1 26.9815 1.46128 18.9961 6.19954 4.32369 -7.46814 -7.92219
242 1 26.9815 2.92251 14.6124 4.13304 8.05988 1.83771 5.4337
243 1 26.9815 5.84499 14.6124 4.13304 2.31038 8.13775 7.81557
244 1 26.9815 4.38375 13.1512 6.19954 6.15428 -6.58415 -6.94157
245 1 26.9815 4.38375 16.0736 6.19954 -1.46721 -6.88164 5.89673
246 1 26.9815 5.84499 11.6899 4.13304 -6.91924 4.60745 8.22383
247 1 26.9815 8.76746 11.6899 4.13304 2.7431 -1.98725 -6.47987
248 1 26.9815 7.30622 10.2287 6.19954 3.23405 4.11615 -3.70659
249 1 26.9815 7.30622 13.1512 6.19954 -7.14275 7.65975 1.56079
250 1 26.9815 8.76746 8.76746 4.13304 1.728 -8.96526 2.12964
251 1 26.9815 11.6899 8.76746 4.13304 -8.78437 4.43905 -7.03557
252 1 26.9815 10.2287 7.30622 6.19954 -1.23273 -6.96701 5.82855
253 1 26.9815 10.2287 10.2287 6.19954 -8.63876 -0.136685 3.2165
254 1 26.9815 11.6899 5.84499 4.13304 5.57466 4.47939 -1.05052
255 1 26.9815 14.6124 5.84499 4.13304 -7.95916 -1.81367 5.01739
256 1 26.9815 13.1512 4.38375 6.19954 -2.26354 -5.64952 -8.32373
257 1 26.9815 13.1512 7.30622 6.19954 -2.70428 -3.20175 -4.83778
258 1 26.9815 14.6124 2.92251 4.13304 -3.81772 8.02417 5.83225
259 1 26.9815 17.5349 2.92251 4.13304 -0.818014 7.22955 -0.551387
260 1 26.9815 16.0736 1.46128 6.19954 8.43471 -0.540231 -4.88818
261 1 26.9815 16.0736 4.38375 6.19954 2.64935 2.52437 -4.68401
262 1 26.9815 17.5349 4.133e-05 4.13304 1.7084 6.77576 0.610872
263 1 26.9815 20.4573 4.133e-05 4.13304 0.578986 3.58164 2.90939
264 1 26.9815 18.9961 1.46128 6.19954 1.85684 -4.83127 -4.50823
265 1 26.9815 4.133e-05 26.3023 4.13304 -4.45457 1.65821 3.43564
266 1 26.9815 4.133e-05 23.3798 4.13304 1.85127 -7.61226 3.53039
267 1 26.9815 2.92251 23.3798 4.13304 -3.87155 -6.78719 -5.00765
268 1 26.9815 1.46128 21.9186 6.19954 -7.52039 -0.959624 -6.90153
269 1 26.9815 1.46128 24.8411 6.19954 -0.453365 -2.75834 1.23299
270 1 26.9815 2.92251 20.4573 4.13304 -4.63772 -7.20371 4.91614
271 1 26.9815 5.84499 20.4573 4.13304 3.21849 -3.26683 9.22217
272 1 26.9815 4.38375 18.9961 6.19954 0.366816 -2.66951 4.89269
273 1 26.9815 4.38375 21.9186 6.19954 8.52808 6.83519 0.505791
274 1 26.9815 5.84499 17.5349 4.13304 -3.84052 6.19548 0.498384
275 1 26.9815 8.76746 17.5349 4.13304 -1.18816 -2.54105 2.82084
276 1 26.9815 7.30622 16.0736 6.19954 2.98299 -2.06336 3.81347
277 1 26.9815 7.30622 18.9961 6.19954 -4.58569 -4.48843 0.43532
278 1 26.9815 8.76746 14.6124 4.13304 -7.72776 0.753644 1.76709
279 1 26.9815 11.6899 14.6124 4.13304 0.194561 8.11023 -0.663184
280 1 26.9815 10.2287 13.1512 6.19954 0.127115 0.565797 4.74952
281 1 26.9815 10.2287 16.0736 6.19954 -0.290238 -3.48773 1.53303
282 1 26.9815 11.6899 11.6899 4.13304 7.40313 6.08464 8.41392
283 1 26.9815 14.6124 11.6899 4.13304 1.10654 7.34091 0.477083
284 1 26.9815 13.1512 10.2287 6.19954 4.02928 2.45977 -0.71189
285 1 26.9815 27.7635 27.7635 26.8645 -1.20024 -5.85193 4.11716
286 1 26.9815 14.6124 8.76746 4.13304 -3.79388 8.9936 8.11269
287 1 26.9815 17.5349 8.76746 4.13304 5.4485 9.0682 8.61293
288 1 26.9815 16.0736 7.30622 6.19954 4.14876 -5.42739 1.74324
289 1 26.9815 16.0736 10.2287 6.19954 -1.14174 -3.23345 7.28477
290 1 26.9815 17.5349 5.84499 4.13304 2.35685 8.25114 6.60799
291 1 26.9815 20.4573 5.84499 4.13304 -3.0701 5.32127 0.529017
292 1 26.9815 18.9961 4.38375 6.19954 5.12687 -2.59436 -3.37954
293 1 26.9815 18.9961 7.30622 6.19954 4.68813 -2.8446 4.40804
294 1 26.9815 20.4573 2.92251 4.13304 -0.547181 0.543807 -1.60308
295 1 26.9815 23.3798 2.92251 4.13304 3.90389 1.74034 3.48683
296 1 26.9815 21.9186 1.46128 6.19954 8.69332 5.32029 2.21866
297 1 26.9815 21.9186 4.38375 6.19954 -1.92198 -4.01765 -5.72581
298 1 26.9815 23.3798 4.133e-05 4.13304 -0.107907 -8.37059 7.81526
299 1 26.9815 26.3023 4.133e-05 4.13304 0.967883 1.57381 1.64896
300 1 26.9815 24.8411 1.46128 6.19954 -5.572 0.184 -1.05539
301 1 26.9815 1.46128 27.7635 6.19954 1.00003 -2.94397 5.18618
302 1 26.9815 2.92251 26.3023 4.13304 1.39211 -6.05189 3.24417
303 1 26.9815 5.84499 26.3023 4.13304 -1.55243 -4.36841 1.59408
304 1 26.9815 4.38375 24.8411 6.19954 -1.70613 -8.66261 3.53281
305 1 26.9815 4.38375 27.7635 6.19954 0.451874 -7.86762 -2.01551
306 1 26.9815 5.84499 23.3798 4.13304 -8.10746 -6.09007 -2.80063
307 1 26.9815 8.76746 23.3798 4.13304 -0.097641 0.711078 -5.33968
308 1 26.9815 7.30622 21.9186 6.19954 5.97963 0.144226 2.44626
309 1 26.9815 7.30622 24.8411 6.19954 -8.70881 2.98882 -8.03972
310 1 26.9815 8.76746 20.4573 4.13304 -5.87377 -4.64334 -6.06927
311 1 26.9815 11.6899 20.4573 4.13304 2.89319 -3.9389 -7.81745
312 1 26.9815 10.2287 18.9961 6.19954 6.78668 -2.38189 7.96904
313 1 26.9815 10.2287 21.9186 6.19954 6.48533 -0.106931 -5.24192
314 1 26.9815 11.6899 17.5349 4.13304 -3.76923 5.63869 -4.06944
315 1 26.9815 14.6124 17.5349 4.13304 -3.21177 3.46679 -2.37198
316 1 26.9815 27.7635 24.8411 26.8645 -6.00725 4.09469 -1.066
317 1 26.9815 13.1512 18.9961 6.19954 4.24078 -2.57256 -0.229493
318 1 26.9815 14.6124 14.6124 4.13304 6.34379 0.217873 5.24891
319 1 26.9815 17.5349 14.6124 4.13304 2.18314 -5.40125 5.27782
320 1 26.9815 26.3023 26.3023 24.798 -2.16542 8.97039 -0.583204
321 1 26.9815 24.8411 27.7635 26.8645 0.384177 -1.47123 3.1317
322 1 26.9815 17.5349 11.6899 4.13304 -3.07709 -3.16348 2.64391
323 1 26.9815 20.4573 11.6899 4.13304 7.72217 -7.69439 3.57955
324 1 26.9815 18.9961 10.2287 6.19954 5.00856 6.74828 -7.20125
325 1 26.9815 18.9961 13.1512 6.19954 -7.0423 6.89878 -2.30587
326 1 26.9815 20.4573 8.76746 4.13304 -2.808 -2.91602 2.73791
327 1 26.9815 23.3798 8.76746 4.13304 7.60708 1.32184 -1.64693
328 1 26.9815 21.9186 7.30622 6.19954 -6.60057 2.85618 -3.54302
329 1 26.9815 21.9186 10.2287 6.19954 -0.475602 4.90649 3.32488
330 1 26.9815 23.3798 5.84499 4.13304 -7.1969 5.58813 -0.360449
331 1 26.9815 26.3023 5.84499 4.13304 2.92567 -2.79368 6.5626
332 1 26.9815 24.8411 4.38375 6.19954 -3.10974 -7.16656 -6.26528
333 1 26.9815 24.8411 7.30622 6.19954 -4.18644 3.99984 2.95625
334 1 26.9815 26.3023 2.92251 4.13304 8.53553 4.8381 -1.85077
335 1 26.9815 27.7635 1.46128 6.19954 0.0217107 8.87324 1.05527
336 1 26.9815 27.7635 4.38375 6.19954 5.11746 2.76978 -2.62999
337 1 26.9815 7.30622 27.7635 6.19954 -1.69482 -0.115409 -2.43518
338 1 26.9815 8.76746 26.3023 4.13304 3.33546 1.21495 -0.0665196
339 1 26.9815 11.6899 26.3023 4.13304 3.02305 -0.67014 -8.87446
340 1 26.9815 10.2287 24.8411 6.19954 3.65634 0.284914 5.98228
341 1 26.9815 10.2287 27.7635 6.19954 -3.73323 -6.72431 -1.51155
342 1 26.9815 11.6899 23.3798 4.13304 -1.50032 -0.290152 2.84963
343 1 26.9815 14.6124 23.3798 4.13304 -3.58182 -4.71269 8.88242
344 1 26.9815 13.1512 21.9186 6.19954 -6.99162 4.92489 3.93894
345 1 26.9815 13.1512 24.8411 6.19954 -2.46518 1.62826 8.73358
346 1 26.9815 14.6124 20.4573 4.13304 -2.29386 -6.67097 4.99316
347 1 26.9815 17.5349 20.4573 4.13304 8.09844 -4.03126 1.70898
348 1 26.9815 16.0736 18.9961 6.19954 4.2693 4.63217 5.88139
349 1 26.9815 16.0736 21.9186 6.19954 7.69949 -7.43817 5.44272
350 1 26.9815 17.5349 17.5349 4.13304 8.61338 5.69774 7.6099
351 1 26.9815 20.4573 17.5349 4.13304 0.0982798 6.29155 -1.09287
352 1 26.9815 18.9961 16.0736 6.19954 6.65989 -8.55947 -6.51821
353 1 26.9815 18.9961 18.9961 6.19954 -5.4733 6.19121 1.39297
354 1 26.9815 20.4573 14.6124 4.13304 -3.80193 0.890805 0.497153
355 1 26.9815 23.3798 14.6124 4.13304 -3.71283 -8.9339 2.44734
356 1 26.9815 21.9186 13.1512 6.19954 -8.76669 -7.14675 -0.276218
357 1 26.9815 21.9186 16.0736 6.19954 1.98483 3.20177 -6.87336
358 1 26.9815 23.3798 11.6899 4.13304 0.797126 1.21046 -2.98598
359 1 26.9815 26.3023 11.6899 4.13304 8.51902 -0.100758 7.70832
360 1 26.9815 24.8411 10.2287 6.19954 1.62296 5.54914 -1.7075
361 1 26.9815 24.8411 13.1512 6.19954 -7.49556 -1.39981 4.77865
362 1 26.9815 26.3023 8.76746 4.13304 -1.0728 -6.91399 7.04707
363 1 26.9815 27.7635 7.30622 6.19954 2.95158 -3.18642 -1.52754
364 1 26.9815 27.7635 10.2287 6.19954 2.28252 -6.01082 3.40786
365 1 26.9815 13.1512 27.7635 6.19954 7.11661 3.37954 2.36578
366 1 26.9815 14.6124 26.3023 4.13304 0.78281 -3.30317 -2.20494
367 1 26.9815 17.5349 26.3023 4.13304 4.46818 5.43454 -2.75452
368 1 26.9815 16.0736 24.8411 6.19954 -6.08432 -1.87163 -6.53674
369 1 26.9815 16.0736 27.7635 6.19954 -8.06908 3.27852 -6.44139
370 1 26.9815 17.5349 23.3798 4.13304 -3.81766 9.00124 -8.86497
371 1 26.9815 20.4573 23.3798 4.13304 -0.255279 2.88904 3.84355
372 1 26.9815 18.9961 21.9186 6.19954 -7.44863 6.44641 4.48439
373 1 26.9815 18.9961 24.8411 6.19954 -6.73126 3.95853 -1.17371
374 1 26.9815 20.4573 20.4573 4.13304 -7.95103 7.78899 -5.76954
375 1 26.9815 23.3798 20.4573 4.13304 -8.58758 6.47169 -6.51895
376 1 26.9815 21.9186 18.9961 6.19954 0.355448 6.05089 4.09205
377 1 26.9815 21.9186 21.9186 6.19954 -8.11254 -0.600654 -3.36694
378 1 26.9815 23.3798 17.5349 4.13304 -1.40939 2.39854 5.49943
379 1 26.9815 26.3023 17.5349 4.13304 -0.84474 -6.07985 5.51846
380 1 26.9815 24.8411 16.0736 6.19954 -7.80832 8.94554 -0.557209
381 1 26.9815 24.8411 18.9961 6.19954 1.39692 2.16469 -1.91126
382 1 26.9815 26.3023 14.6124 4.13304 0.485151 6.55403 -2.97182
383 1 26.9815 27.7635 13.1512 6.19954 -7.84218 2.87222 -6.30061
384 1 26.9815 27.7635 16.0736 6.19954 1.28702 7.63895 -2.95298
385 1 26.9815 18.9961 27.7635 6.19954 0.149795 0.347109 -2.09038
386 1 26.9815 20.4573 26.3023 4.13304 4.819 -0.918238 -1.46303
387 1 26.9815 23.3798 26.3023 4.13304 -3.27488 -3.84591 -6.95999
388 1 26.9815 21.9186 24.8411 6.19954 -2.29079 8.60603 -3.98705
389 1 26.9815 21.9186 27.7635 6.19954 1.23496 4.39832 -1.44458
390 1 26.9815 23.3798 23.3798 4.13304 -1.93079 -6.77697 3.40852
391 1 26.9815 26.3023 23.3798 4.13304 0.0303452 8.69935 2.56738
392 1 26.9815 24.8411 21.9186 6.19954 -7.21505 -8.92653 -0.736763
393 1 26.9815 24.8411 24.8411 6.19954 -1.53514 -4.37505 -0.999257
394 1 26.9815 26.3023 20.4573 4.13304 0.0136135 -0.0849593 0.805934
395 1 26.9815 27.7635 18.9961 6.19954 -8.27242 0.0871567 5.85661
396 1 26.9815 27.7635 21.9186 6.19954 -9.09608 -3.91428 6.2995
397 1 26.9815 24.8411 27.7635 6.19954 6.35722 7.97984 5.47163
398 1 26.9815 26.3023 26.3023 4.13304 4.22885 -3.16048 -1.30495
399 1 26.9815 27.7635 24.8411 6.19954 1.94895 -0.338141 -4.58224
400 1 26.9815 27.7635 27.7635 6.19954 4.97323 -5.76167 -4.49952
401 1 26.9815 4.133e-05 2.92251 8.26604 -3.34266 1.18763 -5.16021
402 1 26.9815 4.133e-05 4.133e-05 8.26604 7.39207 1.77137 -1.67126
403 1 26.9815 2.92251 4.133e-05 8.26604 2.14101 -5.1655 8.29364
404 1 26.9815 1.46128 1.46128 10.3325 -4.60794 2.81494 -6.56443
405 1 26.9815 4.133e-05 8.76746 8.26604 -1.28483 7.2382 -0.369072
406 1 26.9815 4.133e-05 5.84499 8.26604 3.29415 -2.93945 8.4283
407 1 26.9815 2.92251 5.84499 8.26604 6.62566 -2.55159 7.28939
408 1 26.9815 1.46128 4.38375 10.3325 7.41196 -8.95425 5.49314
409 1 26.9815 1.46128 7.30622 10.3325 2.47224 4.22616 -7.24562
410 1 26.9815 2.92251 2.92251 8.26604 -8.15356 0.121333 -0.921809
411 1 26.9815 5.84499 2.92251 8.26604 -5.94704 -1.11608 -2.93462
412 1 26.9815 4.38375 1.46128 10.3325 -0.125653 2.10979 1.61205
413 1 26.9815 4.38375 4.38375 10.3325 -8.47169 -7.17974 8.34289
414 1 26.9815 5.84499 4.133e-05 8.26604 5.95808 1.27088 -4.495
415 1 26.9815 8.76746 4.133e-05 8.26604 0.0870815 -0.300795 5.58706
416 1 26.9815 7.30622 1.46128 10.3325 0.870366 -2.83548 -5.78261
417 1 26.9815 4.133e-05 14.6124 8.26604 7.83614 0.85494 -2.9498
418 1 26.9815 4.133e-05 11.6899 8.26604 -0.954704 -1.74513 -5.30236
419 1 26.9815 2.92251 11.6899 8.26604 -2.47484 2.77299 -3.21624
420 1 26.9815 1.46128 10.2287 10.3325 6.86977 -4.47149 -5.39962
421 1 26.9815 1.46128 13.1512 10.3325 -2.61084 5.36779 1.44536
422 1 26.9815 2.92251 8.76746 8.26604 4.95387 -4.29137 6.97479
423 1 26.9815 5.84499 8.76746 8.26604 4.93263 1.94137 4.24637
424 1 26.9815 4.38375 7.30622 10.3325 6.64528 0.262494 -7.59913
425 1 26.9815 4.38375 10.2287 10.3325 7.41152 1.7752 8.25614
426 1 26.9815 5.84499 5.84499 8.26604 0.817947 6.07687 4.86258
427 1 26.9815 8.76746 5.84499 8.26604 -7.02635 2.50246 8.55285
428 1 26.9815 7.30622 4.38375 10.3325 -6.86363 -5.15056 5.11775
429 1 26.9815 7.30622 7.30622 10.3325 -4.54371 -7.26195 6.94222
430 1 26.9815 8.76746 2.92251 8.26604 2.38947 -6.52063 7.27145
431 1 26.9815 11.6899 2.92251 8.26604 -3.53612 0.58897 -5.34706
432 1 26.9815 10.2287 1.46128 10.3325 -9.11421 0.215288 -1.87197
433 1 26.9815 10.2287 4.38375 10.3325 6.98292 8.52698 -6.72561
434 1 26.9815 11.6899 4.133e-05 8.26604 -4.15433 -1.22821 1.148
435 1 26.9815 14.6124 4.133e-05 8.26604 1.70049 0.877697 -1.8716
436 1 26.9815 13.1512 1.46128 10.3325 -5.05621 5.96049 -7.74905
437 1 26.9815 4.133e-05 20.4573 8.26604 -6.0471 6.32675 9.28427
438 1 26.9815 4.133e-05 17.5349 8.26604 8.9615 8.48406 -1.62851
439 1 26.9815 2.92251 17.5349 8.26604 -5.74999 5.38814 -1.55937
440 1 26.9815 1.46128 16.0736 10.3325 -6.02315 -8.94559 5.76941
441 1 26.9815 1.46128 18.9961 10.3325 -3.64037 -8.06903 9.11725
442 1 26.9815 2.92251 14.6124 8.26604 -1.28693 8.34012 -5.35763
443 1 26.9815 5.84499 14.6124 8.26604 -5.1548 1.58662 -1.10344
444 1 26.9815 4.38375 13.1512 10.3325 -7.40634 8.82433 -3.67392
445 1 26.9815 4.38375 16.0736 10.3325 -3.00535 3.91407 -3.83813
446 1 26.9815 5.84499 11.6899 8.26604 -2.25888 0.103924 -2.91508
447 1 26.9815 8.76746 11.6899 8.26604 1.42864 8.66263 2.88346
448 1 26.9815 7.30622 10.2287 10.3325 1.96501 -2.89162 -4.84893
449 1 26.9815 27.7635 21.9186 26.8645 8.60003 -0.75043 3.82341
450 1 26.9815 8.76746 8.76746 8.26604 -0.857858 -8.60482 -5.99598
451 1 26.9815 11.6899 8.76746 8.26604 -0.364727 -2.27689 -7.12175
452 1 26.9815 10.2287 7.30622 10.3325 3.31695 -1.02491 3.7519
453 1 26.9815 27.7635 18.9961 26.8645 -4.16245 7.66723 0.128846
454 1 26.9815 11.6899 5.84499 8.26604 -0.73307 0.105025 -2.58576
455 1 26.9815 14.6124 5.84499 8.26604 -3.09616 3.1481 -0.827661
456 1 26.9815 13.1512 4.38375 10.3325 -3.66665 4.38303 -4.22919
457 1 26.9815 26.3023 20.4573 24.798 -0.280707 -6.75403 7.43455
458 1 26.9815 14.6124 2.92251 8.26604 -4.75788 7.30193 -0.876647
459 1 26.9815 17.5349 2.92251 8.26604 8.45927 -5.47147 5.55784
460 1 26.9815 16.0736 1.46128 10.3325 0.109144 7.27577 -4.56602
461 1 26.9815 16.0736 4.38375 10.3325 5.03968 3.13439 4.88994
462 1 26.9815 17.5349 4.133e-05 8.26604 -1.25124 8.88799 -5.29573
463 1 26.9815 20.4573 4.133e-05 8.26604 -0.105371 -2.07086 4.94421
464 1 26.9815 18.9961 1.46128 10.3325 2.80495 2.28411 7.33685
465 1 26.9815 4.133e-05 26.3023 8.26604 5.94843 2.50743 1.23394